Random liquid created from single molecule by make_liquid
   2 atom types
   1 bond types
   1 angle types
 192 atoms
 128 bonds
  64 angles
 -6.61 6.61 xlo xhi
 -6.1675 6.1675 ylo yhi
 -5.9 5.9 zlo zhi

Masses

1 1.0079401
2 15.9994

Atoms

1 1 2 0 -1.4041386574023393 -1.911151926336892 -2.709947817040088
2 1 1 0 -2.180242510319869 -2.3835607596616795 -3.127671055181418
3 1 1 0 -1.4066953010292045 -2.073847401931381 -1.7232747983583934
4 2 2 0 3.440519418319373 -4.529635241419631 4.276302793734635
5 2 1 0 3.770069359935215 -5.412706766505442 3.9422645959733384
6 2 1 0 4.127432207226976 -4.123916707459099 4.8792483067257315
7 3 2 0 4.618583575950201 -2.3837359249620604 2.5992273666794965
8 3 1 0 4.0351224753641874 -2.955857815194906 2.0228163268655868
9 3 1 0 4.375547576529588 -2.52077878428428 3.559515218156549
10 4 2 0 -3.388913711872788 -1.8618437593654686 2.398772748832439
11 4 1 0 -3.89211035983063 -1.018621834477232 2.209643378104969
12 4 1 0 -3.5600228053825704 -2.5230666962677852 1.668357862735136
13 5 2 0 -1.2662076952839785 1.820086916612211 -1.7973356903785938
14 5 1 0 -1.9582604462775781 2.1722640876519286 -1.1672291676059339
15 5 1 0 -1.5586228091751568 0.931537967988839 -2.1508525458017966
16 6 2 0 -5.528555210025013 2.334128003932001 -1.3993530896922977
17 6 1 0 -5.851712626680753 1.9730307631982995 -2.274097662007494
18 6 1 0 -4.548301995308265 2.1587260870816 -1.3080415208596194
19 7 2 0 3.0747653224367815 -3.6072262619676674 -2.86388951258104
20 7 1 0 3.474965474453679 -2.7813675486474643 -3.261126499729456
21 7 1 0 2.5294416429734015 -3.361145896512864 -2.062598967052047
22 8 2 0 2.5705709712469984 -1.13677103689251 2.0877714632848168
23 8 1 0 2.9609164584973415 -2.051638637279578 2.19095903203852
24 8 1 0 2.486526333768511 -0.9179478847203391 1.1156331362013998
25 9 2 0 -4.161364239475477 -3.9120496065213795 4.385872588141659
26 9 1 0 -3.9970707415829545 -4.248487425972107 5.313135894971752
27 9 1 0 -4.7426338841406395 -4.56039353173337 3.8941656074798576
28 10 2 0 -4.081161859308649 -4.85234622302902 -4.5496646778405285
29 10 1 0 -4.679376605807384 -5.424156864124521 -5.111066234483727
30 10 1 0 -3.5076195428882757 -4.287226211578194 -5.142698052898772
31 11 2 0 1.1883424962171745 3.1357896775900365 2.7530299134250527
32 11 1 0 2.0806221440670596 3.1793291399947092 3.202408757215453
33 11 1 0 1.2842400725871785 2.687424671292227 1.8643384731748807
34 12 2 0 -3.447860012371869 -0.3393464615513988 0.015884871000947598
35 12 1 0 -3.56429449767938 -0.7044680948458023 -0.907765064597817
36 12 1 0 -3.1197094627441877 -1.0640056588572482 0.6218438337526286
37 13 2 0 -1.2982383383248894 3.9252357410322656 2.7178750658555106
38 13 1 0 -2.1393638989051356 4.465263551966853 2.747501992050526
39 13 1 0 -0.6005777720978209 4.422940442482137 2.202550154283772
40 14 2 0 -4.149469714101395 -3.679421919999334 0.724593174309188
41 14 1 0 -5.027891836967788 -3.2649026562092422 0.9623921524521126
42 14 1 0 -3.8133482871062827 -3.281521351644388 -0.12904464351379263
43 15 2 0 4.35378111780073 -4.614772078663678 -0.4136784991097189
44 15 1 0 3.5047878586455896 -4.194654931030522 -0.0931913259284593
45 15 1 0 5.118197775486534 -3.9927533929653194 -0.24409097570498417
46 16 2 0 -4.498801685249303 -0.581660661381723 4.303681195722783
47 16 1 0 -4.231365106706601 -0.36405648699471227 3.364998022470636
48 16 1 0 -5.45486132259482 -0.8744579481504084 4.318504107031092
49 17 2 0 -0.643968001878819 3.0267887123304824 0.43583210963294583
50 17 1 0 -0.7124942547340618 2.060375483241257 0.6835206707554882
51 17 1 0 0.30464345993411435 3.2459083015247403 0.20752770724773284
52 18 2 0 -1.7579125917226204 -3.345865954702837 2.2146105115629577
53 18 1 0 -1.9247837733292283 -2.6226759012269416 2.884797168624068
54 18 1 0 -0.8834081177316092 -3.1819495919298837 1.7581312119392063
55 19 2 0 3.255437748768707 0.28061220220735006 -4.798686921310199
56 19 1 0 3.057825749238874 -0.6874009143559776 -4.953283505370696
57 19 1 0 4.21895645622253 0.38917565399758564 -4.5540531596952025
58 20 2 0 -4.197066210977989 -2.8813463733904974 -2.18133844001569
59 20 1 0 -3.7191864569745565 -2.6083758849795435 -3.016274397541957
60 20 1 0 -5.084263142977351 -3.2767104308657538 -2.41918054290671
61 21 2 0 -1.2775572877783796 -4.552722755460449 -1.5376207389346508
62 21 1 0 -1.1000095181321607 -3.5703789259575744 -1.47865133897772
63 21 1 0 -0.5003368355513914 -5.055233691862371 -1.1589241223184756
64 22 2 0 1.0200218380412895 0.8254173877457447 -0.8919695496492333
65 22 1 0 1.6029613123877238 0.036137459099297775 -0.6990478984937375
66 22 1 0 0.5218784513646821 0.6712390488943052 -1.7452468821381322
67 23 2 0 -0.31859246911381156 -2.424185388588295 4.517543866637531
68 23 1 0 0.6694772731942676 -2.410799712105203 4.670968141119559
69 23 1 0 -0.7887422313986993 -2.120982321995316 5.346414846604906
70 24 2 0 -3.340549583969273 0.4233103770631361 -1.7942469367514926
71 24 1 0 -4.278535304384425 0.2800405925278032 -2.109931204868337
72 24 1 0 -2.810900348311243 -0.41359332668441606 -1.9323189390564273
73 25 2 0 0.47083909275441727 0.05547465086943326 4.833992958202074
74 25 1 0 -0.025216437569322514 -0.8118366658442804 4.875223902110234
75 25 1 0 1.4058372197064122 -0.07939467770072267 5.162000224596123
76 26 2 0 2.1081579620866817 4.604197372601153 -3.5896756317019207
77 26 1 0 1.78516382665345 4.449119306529276 -2.656066729698975
78 26 1 0 2.929640854990357 5.174012277796842 -3.5678391831940757
79 27 2 0 4.369893636959428 0.7444292965403845 3.2151985373297496
80 27 1 0 3.828029287363737 1.446138909938905 2.752611631871609
81 27 1 0 3.9615339009610167 0.5406628994402578 4.104985917229095
82 28 2 0 2.1455845188785743 2.612297645451749 -1.1833595304614937
83 28 1 0 1.2290057297929808 2.613205790765731 -1.58321262682374
84 28 1 0 2.5345780413381696 3.531834031909616 -1.2393673287085574
85 29 2 0 4.910658736924364 4.353026678743992 -1.2172506298998007
86 29 1 0 5.117884436731889 3.82257471417091 -2.0392471156707797
87 29 1 0 5.437547033256853 3.993664108210866 -0.44702516544950655
88 30 2 0 -2.178441054301368 4.826642269491288 -4.567596011223444
89 30 1 0 -2.274021078197782 5.606616679517882 -5.1860653950539035
90 30 1 0 -1.587973096852238 5.079411436219636 -3.8011396591868074
91 31 2 0 -0.22887727887231613 -3.5127121251508013 -3.6276104818457
92 31 1 0 0.4370449514904282 -3.127283430448438 -4.26635323476642
93 31 1 0 0.18151002488952495 -3.5793371774310137 -2.7181362582858757
94 32 2 0 -3.8039017639984714 3.4313312934354805 2.8915284067183578
95 32 1 0 -4.472879919632296 3.4135050418753923 2.1484601379569455
96 32 1 0 -3.345222062959823 4.3198178458692 2.9058314832943557
97 33 2 0 4.290589330652121 -1.0004976356463944 1.46350658548804
98 33 1 0 4.215198234458606 -0.9958036854456517 2.460649578968039
99 33 1 0 5.204897432671644 -1.307917120239971 1.1998136673547009
100 34 2 0 4.701299702661987 2.0525963026385146 -0.8708700987924711
101 34 1 0 4.885892991636782 1.071492394595918 -0.8129008027038381
102 34 1 0 4.2335657506170605 2.353431750497127 -0.03977264156128568
103 35 2 0 4.163711856386615 2.3155654406432706 -4.121979406280635
104 35 1 0 4.393313773632398 3.2668568143436723 -4.327716330337217
105 35 1 0 3.342464802847572 2.28664012281366 -3.5521403035139887
106 36 2 0 -4.343179454873786 1.2649661540182686 1.165272642208179
107 36 1 0 -4.967809397047316 2.0451498359643434 1.199196936826622
108 36 1 0 -4.735305214611972 0.5489096120770458 0.5877776921930916
109 37 2 0 1.6410222465235362 -1.9079474838209878 -3.3287450995417114
110 37 1 0 2.372407893834008 -1.7429688505963825 -2.667037395575992
111 37 1 0 1.0966124354311027 -1.0762839292367388 -3.4380780294512
112 38 2 0 1.234193581106493 1.2694300458570247 1.9760080689204518
113 38 1 0 1.8406285824349538 0.693196905174125 1.42811030770722
114 38 1 0 1.4713425636793733 1.1778538752399907 2.9431555059949486
115 39 2 0 0.3341462215127038 4.638941903821772 -4.958809854864717
116 39 1 0 -0.10729781080347434 3.7464199678420718 -4.866442327413342
117 39 1 0 1.2643465237321394 4.516502388004553 -5.30483870151961
118 40 2 0 0.5009734199087177 4.719774815656603 4.423265465233438
119 40 1 0 0.8860408717579505 5.642136610960239 4.4544387886140475
120 40 1 0 -0.0166448375166367 4.603148140091602 3.575639629073051
121 41 2 0 -2.142014167444244 -4.59990549606888 0.08251591255610435
122 41 1 0 -2.7529887296942173 -3.9779885073430927 -0.40730991711981523
123 41 1 0 -1.906008383990815 -5.370388547616341 -0.5096471878264218
124 42 2 0 -0.12470275374975248 -1.0352592038242383 0.5017104477571017
125 42 1 0 -0.24937298142013603 -1.9138437512760007 0.9627381338146705
126 42 1 0 -0.9780051814757258 -0.5151847328099739 0.5390937520010142
127 43 2 0 3.053054059034687 0.337642686042372 -2.6846894151073317
128 43 1 0 2.113611006585372 0.1002616574450439 -2.9318674854671194
129 43 1 0 3.480732948087655 -0.4365833284350822 -2.2181437620734883
130 44 2 0 0.85242590280395 -5.236828153957185 -4.675912894090054
131 44 1 0 -0.1351923477871093 -5.287759440671466 -4.527534340609157
132 44 1 0 1.0617948372053947 -4.4521271059925605 -5.259358619612852
133 45 2 0 -2.825399201328677 2.954681495226774 -1.965001400159628
134 45 1 0 -3.2344960527098165 3.7202527947775357 -2.4615296989444975
135 45 1 0 -3.076729220023269 2.095694503036139 -2.4110670555852183
136 46 2 0 0.36095651733998846 1.7258642203644339 4.158392502479199
137 46 1 0 1.2799799153585711 2.078812928327766 4.333957884720094
138 46 1 0 -0.24632269027160192 2.4828083264824246 3.917047139532498
139 47 2 0 5.290485280653674 -0.37285645622793506 -1.951196168901249
140 47 1 0 5.102111459604115 -1.3260445075007157 -1.7146632061793747
141 47 1 0 4.642578247725294 -0.06839563661908221 -2.6494225548285133
142 48 2 0 -4.653195232509257 -2.619226909103143 -4.485661180955428
143 48 1 0 -4.0566740632658735 -1.8214892130038083 -4.573848838065885
144 48 1 0 -5.432268592553508 -2.389979418405343 -3.902145724709303
145 49 2 0 0.8742139868739338 -3.3510619750663295 1.903041797955975
146 49 1 0 1.2184872492462249 -3.779411423352435 1.067582241203807
147 49 1 0 1.569909390417371 -2.7353033552527974 2.272973180260678
148 50 2 0 -2.335422015053898 4.065315135398929 4.966373370430546
149 50 1 0 -2.018964580432341 3.488621022583736 4.213194379541235
150 50 1 0 -3.3299493715096435 3.995746805684669 5.0443194079303115
151 51 2 0 4.1854218718739356 4.730068720021201 2.0518604323068397
152 51 1 0 4.2951278707022125 5.504610140338642 2.674797172300342
153 51 1 0 3.2275542548136666 4.659269709430726 1.7735132960063353
154 52 2 0 -3.427558470911135 1.516112763058147 -4.4146852854254055
155 52 1 0 -3.807120986010836 0.7409584174386 -3.909642675739528
156 52 1 0 -2.445372712419802 1.5802509412856491 -4.238057343382074
157 53 2 0 -0.43042119804014867 -4.590686449123176 1.3974793234876923
158 53 1 0 -1.0663026544514755 -5.141008452704435 0.8563689227684682
159 53 1 0 -0.23857361632845964 -3.7346790177204396 0.9174316354663176
160 54 2 0 -1.5070741047399334 1.8470507373637073 3.8680248664910124
161 54 1 0 -2.40881258970658 2.157814348722388 3.567535794168295
162 54 1 0 -1.5648525479208997 1.5183232692633633 4.810680637820038
163 55 2 0 3.427919778855691 4.113893798701575 4.190712887406786
164 55 1 0 4.140044373889874 4.6246387705741805 3.7090302794020413
165 55 1 0 3.6675556450174693 4.040144067446729 5.158770545187939
166 56 2 0 -4.6512295238820744 3.7998273728516914 -3.3457403259095657
167 56 1 0 -4.2359517994133515 3.6595776750653175 -4.244558680100728
168 56 1 0 -5.048249362778105 4.7165649759298764 -3.301384778055504
169 57 2 0 -5.1161903145834895 4.050152777828526 -0.6481321869274259
170 57 1 0 -4.734491425529912 4.529450395775016 0.14217139494860587
171 57 1 0 -4.536235075043088 3.2678985692220914 -0.8755750879974666
172 58 2 0 1.3814383648979058 4.3335161876819175 0.6361641896136732
173 58 1 0 1.684276282020539 5.09194705524945 0.05904044631975358
174 58 1 0 1.3495991650493695 3.494006883405499 0.09375254391796228
175 59 2 0 -0.7044128147282418 0.4026449258652711 -4.080276052713381
176 59 1 0 -0.1301731234442045 -0.2532238169065619 -3.5902913904953593
177 59 1 0 -0.9783015923863395 1.1359480537592954 -3.4579807368915487
178 60 2 0 2.456043442060291 1.349018766050575 0.22111359386548557
179 60 1 0 2.65294815619244 1.2830921361642527 -0.7570899703400269
180 60 1 0 3.1096260174055046 0.7897879771381657 0.7311045172528752
181 61 2 0 2.8706749225742554 -1.8039831643015445 -0.443951313215166
182 61 1 0 2.0709648502836493 -1.5605224374405422 0.1048571003075005
183 61 1 0 3.565305568373523 -1.0900366558469194 -0.35581137344922864
184 62 2 0 -1.7924382378367012 -4.4423602669741955 -3.3178541163623207
185 62 1 0 -1.5250724124328177 -5.40526123802579 -3.3544223451134725
186 62 1 0 -2.2347562207633023 -4.186378802782137 -4.177405331805492
187 63 2 0 5.182328593543928 -3.5156987113214693 -4.312925140688213
188 63 1 0 5.690211527422224 -4.055576801870882 -3.641667684252983
189 63 1 0 5.505193063198355 -3.738326141325362 -5.232814026176361
190 64 2 0 -1.2377625653520052 0.6315311483317299 2.35815616913451
191 64 1 0 -0.26055474598940154 0.4736598273926048 2.5000770055241
192 64 1 0 -1.404671597717788 1.6114272851031957 2.248863277988404

Bonds

1 1 1 2
2 1 1 3
3 1 4 5
4 1 4 6
5 1 7 8
6 1 7 9
7 1 10 11
8 1 10 12
9 1 13 14
10 1 13 15
11 1 16 17
12 1 16 18
13 1 19 20
14 1 19 21
15 1 22 23
16 1 22 24
17 1 25 26
18 1 25 27
19 1 28 29
20 1 28 30
21 1 31 32
22 1 31 33
23 1 34 35
24 1 34 36
25 1 37 38
26 1 37 39
27 1 40 41
28 1 40 42
29 1 43 44
30 1 43 45
31 1 46 47
32 1 46 48
33 1 49 50
34 1 49 51
35 1 52 53
36 1 52 54
37 1 55 56
38 1 55 57
39 1 58 59
40 1 58 60
41 1 61 62
42 1 61 63
43 1 64 65
44 1 64 66
45 1 67 68
46 1 67 69
47 1 70 71
48 1 70 72
49 1 73 74
50 1 73 75
51 1 76 77
52 1 76 78
53 1 79 80
54 1 79 81
55 1 82 83
56 1 82 84
57 1 85 86
58 1 85 87
59 1 88 89
60 1 88 90
61 1 91 92
62 1 91 93
63 1 94 95
64 1 94 96
65 1 97 98
66 1 97 99
67 1 100 101
68 1 100 102
69 1 103 104
70 1 103 105
71 1 106 107
72 1 106 108
73 1 109 110
74 1 109 111
75 1 112 113
76 1 112 114
77 1 115 116
78 1 115 117
79 1 118 119
80 1 118 120
81 1 121 122
82 1 121 123
83 1 124 125
84 1 124 126
85 1 127 128
86 1 127 129
87 1 130 131
88 1 130 132
89 1 133 134
90 1 133 135
91 1 136 137
92 1 136 138
93 1 139 140
94 1 139 141
95 1 142 143
96 1 142 144
97 1 145 146
98 1 145 147
99 1 148 149
100 1 148 150
101 1 151 152
102 1 151 153
103 1 154 155
104 1 154 156
105 1 157 158
106 1 157 159
107 1 160 161
108 1 160 162
109 1 163 164
110 1 163 165
111 1 166 167
112 1 166 168
113 1 169 170
114 1 169 171
115 1 172 173
116 1 172 174
117 1 175 176
118 1 175 177
119 1 178 179
120 1 178 180
121 1 181 182
122 1 181 183
123 1 184 185
124 1 184 186
125 1 187 188
126 1 187 189
127 1 190 191
128 1 190 192

Angles

1 1 2 1 3
2 1 5 4 6
3 1 8 7 9
4 1 11 10 12
5 1 14 13 15
6 1 17 16 18
7 1 20 19 21
8 1 23 22 24
9 1 26 25 27
10 1 29 28 30
11 1 32 31 33
12 1 35 34 36
13 1 38 37 39
14 1 41 40 42
15 1 44 43 45
16 1 47 46 48
17 1 50 49 51
18 1 53 52 54
19 1 56 55 57
20 1 59 58 60
21 1 62 61 63
22 1 65 64 66
23 1 68 67 69
24 1 71 70 72
25 1 74 73 75
26 1 77 76 78
27 1 80 79 81
28 1 83 82 84
29 1 86 85 87
30 1 89 88 90
31 1 92 91 93
32 1 95 94 96
33 1 98 97 99
34 1 101 100 102
35 1 104 103 105
36 1 107 106 108
37 1 110 109 111
38 1 113 112 114
39 1 116 115 117
40 1 119 118 120
41 1 122 121 123
42 1 125 124 126
43 1 128 127 129
44 1 131 130 132
45 1 134 133 135
46 1 137 136 138
47 1 140 139 141
48 1 143 142 144
49 1 146 145 147
50 1 149 148 150
51 1 152 151 153
52 1 155 154 156
53 1 158 157 159
54 1 161 160 162
55 1 164 163 165
56 1 167 166 168
57 1 170 169 171
58 1 173 172 174
59 1 176 175 177
60 1 179 178 180
61 1 182 181 183
62 1 185 184 186
63 1 188 187 189
64 1 191 190 192
