lammps-small (written by ASE) 

192 	 atoms 
2  atom types
0.0      13.223185539199999  xlo xhi
0.0      12.334590911899999  ylo yhi
0.0      11.062131881699999  zlo zhi


Atoms 

     1   2      13.087711305999999      9.0541841049999991      5.3639690419999999
     2   2      6.0922416420000003      7.2083746069999997      9.2550358680000002
     3   2            12.899584614      6.2440788950000004      10.481604582999999
     4   2      3.0982239310000002            11.872794832   0.0092626110000000005
     5   2              1.41412994             1.564799933      2.0313520199999999
     6   2            10.858197589            12.068490813             1.809171002
     7   2      6.2522277529999997      12.258178748000001      6.7181729519999998
     8   2      7.4899968010000002      4.9398930070000002            10.641912109
     9   2      9.3645288709999992             7.328953845      2.3590490339999999
    10   2      8.5590338839999998             10.72746521      8.8315509720000005
    11   2      5.5799276310000003      7.6170312449999997             1.025356817
    12   2      8.7442735339999995             3.765256151      7.1828609060000002
    13   2             1.656668963            12.279761248      7.1284938359999996
    14   2      2.5725278920000001      7.1301281230000004             3.535610825
    15   2      6.0897589280000002      9.9507047709999998      8.0674890670000003
    16   2      3.1664968010000001      3.5827838249999999      5.5235647950000004
    17   2            13.084845545      5.5212089029999998      3.2623450030000001
    18   2             3.402472886      4.1562948500000001      8.2513777459999993
    19   2             5.362637715             1.432036978              1.15506799
    20   2      10.987517843999999      9.2743342720000008      7.9303479589999997
    21   2            10.408187885      5.7711699159999998      9.9232276370000001
    22   2            11.828047477      2.8253978989999999      6.3860040309999997
    23   2      6.3787417519999998      5.0544469220000003      7.7355819099999996
    24   2      7.3674523860000001            11.470110215      2.2444659250000001
    25   2      4.8086956770000002             1.340238021      4.0775629220000003
    26   2      9.3867755679999991      4.4251251099999998      1.8593999640000001
    27   2      4.3706999460000002      7.9806922399999998      5.6906079570000001
    28   2             2.644346906             12.07341591      4.1119380359999997
    29   2      8.6593158379999995             1.110635034      8.9694767120000005
    30   2      5.6635229860000003      4.8502358670000003      5.1372078180000003
    31   2            10.697977394      3.2106599560000002      9.7981968909999999
    32   2     0.64669496400000004      3.0172320639999999      4.4020539899999998
    33   2      8.9336746869999999            12.146416751      5.7783950669999999
    34   2      13.010383818999999      9.3805212569999998      9.6346769900000009
    35   2      10.134778773000001      4.4283570450000003      4.9233399410000001
    36   2      13.155822799999999      3.9556068689999999      8.5340396980000008
    37   2      5.9667357040000004      9.2676866039999997      3.7085360879999998
    38   2      5.1776258430000004      9.9248970839999995            10.813511081
    39   2      8.0466678540000007      7.4386631669999996      4.6588197969999996
    40   2      11.098553497999999     0.59495599600000004             7.675547688
    41   2      5.9191767500000001             2.229768967      8.5085141100000001
    42   2      11.902476888000001      6.7162001079999998             5.634355792
    43   2      2.4350268970000002      9.4955659170000004      6.6983066019999997
    44   2      4.6732068629999999      4.1701709940000002             0.120188446
    45   2      9.5274768999999999      6.7646769190000002      7.0766039599999999
    46   2     0.73193999399999998            10.929683876      1.2704159500000001
    47   2      2.9291908879999999      6.5927778559999997      7.5034812349999997
    48   2      8.6253720109999996      1.0787649880000001      3.4869231040000002
    49   2      8.5615173860000002      7.5766761770000004            10.685092572
    50   2      11.950656521000001      9.9810258439999995      3.1974190309999999
    51   2      11.987567782999999      7.9358539280000002              1.30284399
    52   2      4.6214938940000003      5.6420550179999998      2.3514890409999998
    53   2            13.084818747             0.076747414      9.3697760680000002
    54   2      13.115039292000001      4.1219360639999998      1.0677097900000001
    55   2            10.126293407      9.5323810029999994      5.3927600829999998
    56   2      7.8353116250000001      2.2024859189999999     0.42698738600000002
    57   2      9.0713833630000007      10.030992167999999     0.70461401400000001
    58   2      2.4041988760000002      8.6805376390000006      9.2137477519999997
    59   2      3.4030277529999999      1.4637669689999999      8.7878272010000007
    60   2      1.9628408399999999      9.5316796230000005      3.1779578549999998
    61   2     0.25911498300000002      6.3677937560000002      7.6696260260000004
    62   2            12.091818928             1.559396037     0.38075872799999999
    63   2             2.016313974      3.0176939530000002      10.924698019999999
    64   2      7.7846989320000004      3.5139431079999999      4.0415288719999998
    65   1    0.044156998000000003      9.3234962879999994      4.4672868919999997
    66   1      7.0427574899999996      7.3842430090000004      9.4713740160000004
    67   1      11.945105486999999      6.1039878449999998      10.194585615999999
    68   1      3.1477838349999998    0.076065149999999998            10.219149866
    69   1      10.776465846000001      9.6326959530000007      4.6316059310000002
    70   1      10.036562594999999            12.325850867      2.2233329560000001
    71   1      5.8177046690000003            11.574180561      7.3287879130000002
    72   1      6.6243893890000001      4.8989927890000002      10.210987058000001
    73   1      8.9028787830000002      7.3430409919999997      3.3026358450000002
    74   1      8.4976320239999996      7.9923767559999996      5.2961428990000003
    75   1      5.7409446590000002      7.2390831310000001             0.196793564
    76   1      8.0052490850000009      7.2155457370000002             0.333778405
    77   1     0.81911996600000003     0.23806698800000001      7.5459911340000003
    78   1             2.102465934            12.154035617      4.9628240630000002
    79   1             5.759799889      8.9981141600000001      8.1028232130000006
    80   1      3.5561087659999999      2.8095289980000002      4.9377138680000003
    81   1     0.63732197800000001      6.0357319790000004             3.422902095
    82   1      4.2038008549999999      4.4044538900000001      8.7954592290000004
    83   1      4.5250766980000003     0.98972899999999997     0.80075802900000004
    84   1            13.179178443      4.6431979730000004      1.8884669460000001
    85   1      10.168992941000001              5.75214113      8.9824917089999996
    86   1            12.392301448             3.280833957             7.038782071
    87   1      7.2257027970000003      4.5982368840000003      7.7709450670000004
    88   1      7.7970920110000002      12.255970210999999      2.6383369050000001
    89   1      6.0757339559999997      4.9664340549999997      6.8199179360000004
    90   1            10.231902557      4.2270441439999997             1.560522014
    91   1      3.0852389410000001      7.1504879859999999      4.3866208110000002
    92   1             2.139030011             0.284278007      3.4393698019999999
    93   1      8.5640647300000001     0.18087657700000001      8.7298040100000005
    94   1      6.2964969139999996      4.2657119310000002      4.7170889269999998
    95   1      10.448834252999999      4.1474419520000003      10.023465996000001
    96   1      13.107145836000001      2.8081859740000001      4.9388179570000004
    97   1      9.6557102770000007    0.074322728000000005      6.4006746669999997
    98   1            12.263899404      9.3620471779999992      8.9494831070000007
    99   1            10.618248373      3.7581181049999999      5.3978450240000004
   100   1     0.26564299400000002      4.8562428100000004      8.2930608150000005
   101   1      6.4542296659999998            10.099328171      3.6401920219999999
   102   1      5.1765807390000003      9.1946570909999998     0.38795360400000001
   103   1      7.1587199530000003      7.8508708159999996      4.4927709419999999
   104   1      10.364302953999999             1.065508984      8.1486588960000006
   105   1      5.9726477170000001      3.1844967999999998      8.1545396780000008
   106   1      12.076584520000001      6.3020338899999997      4.7552948900000001
   107   1             2.378711843      9.1733701409999995      7.6229997770000004
   108   1      4.6832819539999999      4.8736850370000004     0.77851693200000005
   109   1      10.326166884999999      6.6069921919999999      6.6065561129999999
   110   1      1.3698119129999999            11.264889732     0.61443394200000001
   111   1      3.2810929830000002      6.8833086149999998             6.666805944
   112   1      8.1644746189999999             1.913413979      3.7979030109999998
   113   1      4.8855979500000002      4.4280938430000001      5.2918828099999997
   114   1      11.610945537999999            10.846166015      2.8112381019999999
   115   1            12.547053367      7.2710098780000001     0.87740163599999998
   116   1      3.8067446880000002             11.22740488      10.916063773999999
   117   1            12.836749873     0.70098298199999998            10.048812899
   118   1      13.152053803999999      4.8721109760000001     0.45829353499999997
   119   1      3.8390849980000001             6.002477829      2.7968391189999999
   120   1      8.4420767590000008      2.2462780420000001      1.1802059600000001
   121   1      9.8480307860000007            10.593181865     0.88291697099999999
   122   1      1.4878409399999999             9.012691684      9.4870211560000008
   123   1      2.8142278159999998      2.1903200310000002      8.8396069649999998
   124   1             1.741527941      9.9656932709999992             2.353632932
   125   1             1.124756976      6.6380859589999996      7.2498150529999998
   126   1             12.82987236      2.0657580370000002     0.77802373499999999
   127   1             2.917009824      3.4774320269999999            10.931230904
   128   1      8.2983386340000003      3.7568020990000002             3.237751083
   129   1     0.72179096399999998      9.1649631419999995      5.8036397700000002
   130   1      8.4218729809999999             10.48032295             9.785938174
   131   1     0.13710899400000001      6.4554199089999997      9.6673196499999996
   132   1      6.1107619030000002     0.83561899399999995             7.115561917
   133   1              1.93791892             2.095481945      1.3899999329999999
   134   1      11.240474905999999             0.454471982             1.359540972
   135   1             6.150786804      6.3844070459999998      8.7372131759999991
   136   1      7.7614094949999997      4.0447728950000004            10.823862945
   137   1      9.0882138010000002      8.1868956829999995             1.892203013
   138   1      9.4025317400000006      10.350264792999999      8.5758968370000002
   139   1      5.3720799110000002      6.8254389030000002      1.6360380430000001
   140   1      9.1443073819999992      3.4489581409999999      8.0016136249999992
   141   1      2.3310029399999999     0.43229599400000002      7.5966790069999997
   142   1      2.4370170089999998      8.0368827570000008      3.2472761170000002
   143   1      7.0278076089999999      9.8987210619999999      8.3174720949999994
   144   1      3.2286139199999999      3.2624969940000002      6.4288561350000002
   145   1            13.159309635      4.7913559919999997      3.9156650329999998
   146   1      3.1960818889999998             4.977766044      7.7354981719999998
   147   1             5.283745723             1.465038955             2.086250036
   148   1            10.218720527             8.589051693      7.7651948370000001
   149   1      9.6790217819999995      6.3632686070000002      10.302196217000001
   150   1            11.486589924                1.977409      6.8868397740000002
   151   1      11.001590499000001             9.512619591      7.0043189330000004
   152   1      6.8921844129999998            11.873239627             1.492513065
   153   1      5.4227229479999997     0.87462800399999996             4.686934011
   154   1      9.4350245590000004      5.4271218230000002              1.89026995
   155   1      3.7383569429999999      8.6240368679999992      6.0785147459999997
   156   1      8.4818648169999999            10.447816131              1.31718701
   157   1      8.4657634300000009      1.2441340139999999      9.9118359700000003
   158   1     0.53617398000000005            11.772018912             1.789393996
   159   1             11.44095527      3.3218679820000001      9.2234066349999999
   160   1             1.375156941      3.1201441050000001      5.0464269100000001
   161   1      8.1772846359999996      12.117124220999999      6.4366549800000001
   162   1      12.479014383999999      9.1715292030000004            10.437897955
   163   1            10.608781744      4.5729938289999996      4.0689560389999997
   164   1     0.64537498699999996      3.5928821499999999      9.0882106230000002
   165   1      5.7610818369999999      9.0263016870000001      2.7777798200000001
   166   1      5.6414307700000004      9.6046628189999996            10.018727215
   167   1             9.583243392            10.319357766      5.4388947840000004
   168   1            11.839583823     0.39870277999999998      8.3881779680000008
   169   1      6.8365716130000003             1.934711037             8.449046933
   170   1             12.46112623      7.5096627959999998      5.6149859370000001
   171   1      2.1649980210000002            10.414255036      6.8006898409999996
   172   1      5.0273747310000001             3.381508052     0.60419153000000003
   173   1      8.8306578059999996      6.4459336370000004      6.5143711089999998
   174   1      1.1574399390000001      2.2703780459999998      2.6167409039999998
   175   1      4.0888239899999999     0.75526000699999996      4.0784939309999997
   176   1      8.8216467349999999     0.60867301500000004             4.286841033
   177   1      8.4939055880000005              3.73633894      4.7021149879999999
   178   1            12.000360461      9.3955296070000003      2.4086539170000001
   179   1      11.145315224999999      7.5076439400000003              1.51261299
   180   1      5.1980956259999997      5.6094768840000002      3.1327429539999998
   181   1      13.137039293000001            11.463333151      9.7063277180000007
   182   1      9.2138446629999997             4.581333925      6.9887970700000004
   183   1             2.590457818      10.089372107999999      3.6642670310000001
   184   1      6.9740414749999999      1.9781669900000001     0.82136302000000005
   185   1      8.9375264409999993      8.3820579100000003    0.051438877000000001
   186   1             3.120579985      9.2397696309999997      9.6411617409999995
   187   1      4.2792970439999998      1.8644460549999999      8.6014731960000006
   188   1      2.6525319820000002      7.2660406689999997      8.1413789639999994
   189   1            12.780136893      6.4627807199999996      6.9832248659999996
   190   1      11.566025747999999      2.1448499999999999            10.903447026
   191   1      1.4934279340000001             3.600975955     0.42946655900000003
   192   1      4.9331159199999997      8.5801601969999997      5.1785087909999996
